144
Lattice="7.658968381 0.022888607 0.016420772 4.951315349 27.047496383 -0.075560403 4.503927981 1.010170159 6.561426706" Properties=species:S:1:pos:R:3:forces:R:3 potential_energy=-46653.48531650374
O 11.24989218 8.29557011 3.92907310 -1.07673271518346 -3.5095249735858203 -0.23481689883555998
O 10.91069184 4.88810135 4.70244858 0.58737726197919 3.31111773985299 1.02227261234258
O 7.58592299 10.41549702 3.13701333 0.59965968433072 -1.57353562910311 -2.45635900041616
O 5.61480176 4.20457402 5.47899054 3.5898766109485605 -0.41455431580437 0.1059680637245
O 10.44914311 8.69495220 1.97959646 -0.69126684498757 -3.3888766756396103 -0.8175659159643199
O 10.20202000 5.26687755 2.70029546 -0.07792605756612 3.71830429917528 -0.039482134741229996
O 5.49818584 10.01638262 3.19437377 0.99284349541435 -1.7811818690275603 -2.52760661456303
O 5.71211750 4.22867560 3.36506318 3.52132865631669 -1.07871169416317 -0.1307123715077
O 9.82005266 8.95084226 7.48701641 -3.7814459927955397 0.02615301582917 -0.6157576254634499
O 4.95182184 8.97030481 6.23870140 0.5913383052637701 -0.5592923183790001 -3.2998416477244796
O 9.86298475 6.89921192 8.00302878 -3.6672907616485504 -0.39842989229735 -0.24917523079891
O 4.76949390 6.89699096 6.70645404 0.52331845545512 -0.77448937741169 -3.4656107692522498
O 10.28305561 21.54991450 0.27521611 -0.91915461773463 -3.52498245263742 0.12409229215605999
O 10.22106034 18.11102149 1.01161128 0.29928888182064 3.4436458252173505 0.83247343580615
O 6.52281457 23.48303190 -0.42026984 0.6230680463196401 -1.9755311288437 -1.8525387551071801
O 4.91883531 17.10884552 1.68549037 3.69344660569245 -0.29125160977884 0.31672765384582
O 9.54556318 21.77647351 -1.73162766 -0.52715659995416 -3.4254161815094903 -0.7386813507151601
O 9.49969605 18.40274538 -0.99779560 -0.22427382854298003 3.69739839300155 -0.08959912819855
O 4.50783247 22.93146725 -0.69790253 1.7969198555582901 -1.5040857310828 -2.43921359139161
O 5.10761228 17.16575159 -0.42457478 3.64991575301001 -0.81690205683406 -0.05089603806022
O 8.97014682 22.17501458 3.68876131 -3.59709267227694 0.06970546578773 -0.53735642782269
O 3.92094618 21.70266577 2.46407355 0.77060521014568 -0.62938087870743 -3.3248003856062995
O 9.03637848 20.13510161 4.28394817 -3.7220234015452296 -0.28418544383115 -0.32486134229887
O 3.93818859 19.63737381 2.95407112 0.72657916277506 -1.04311064136279 -3.51077478738605
O 3.66860752 2.95199922 1.76685691 -3.6481442621473104 1.25001074681938 -0.05762256112988
O 4.39763328 -1.59357406 3.03927037 -0.45185384010533 3.60040656860921 0.58322441431383
O 0.52183542 3.41553247 1.49160343 1.2534583405752502 -1.73906538082055 -2.14253232355203
O -1.01310005 -2.94766355 3.67627233 3.70659703285566 -0.40034099412353996 0.11671322281506
O 3.26940287 1.80520126 0.01856416 -3.3300608650040995 1.0530343326295 -0.54099556884891
O 3.64735039 -1.63081905 1.02668103 -0.99808520575076 3.62578028272505 -0.17875422668449
O -1.43707792 2.64709549 1.24635597 1.69348124424413 -1.21230987313719 -2.33989954559551
O -0.99498586 -2.83581883 1.55834202 3.4373779871548105 -1.10868485676128 -0.59238808714946
O 2.95642038 2.07169812 5.71576656 -3.66838888029508 0.23926593771628002 -0.70064417659053
O -1.98600006 1.70953711 4.21513955 0.81222444678107 -1.17081122129347 -3.4317837784188696
O 3.01253466 0.03953316 6.33873924 -3.76718536279559 -0.45052457918223004 -0.39794009692820004
O -2.01336427 -0.27825774 4.95969899 0.66814336135509 -1.41744671526484 -3.19481383684249
O 7.24735720 16.03276563 2.82181410 -3.41832147630407 0.84683922397197 -0.5021780645692301
O 8.66488648 12.38703528 5.55390001 -0.2734935065996 3.14426232675847 1.6889383600564603
O 4.36703084 17.40518838 4.37822093 1.25081575957571 -1.6450655505021199 -2.26829866171782
O 3.18074043 11.04534388 6.39775332 3.65744497484213 -0.47704809114103003 0.48057410357804997
O 7.58583715 17.17997293 4.58277449 -3.69654504348438 1.10982282752446 -0.01655714036071
O 7.82249773 13.07197350 3.70745446 -0.9808760333395701 3.1304858356982104 1.45442922240561
O 2.47619419 16.46089301 4.19267882 1.81356852723208 -0.98438147694219 -2.46601426839395
O 3.38314351 11.10721654 4.28207352 3.48863140871273 -0.83289021181318 0.13852750013798001
O 7.03304474 16.15503897 8.51793868 -3.65576450107165 -0.0975656948721 -0.56369790559705
O 2.09319427 15.49153409 7.13774193 0.8187550517030701 -0.9540378182144499 -3.50583312492145
O 7.26866430 14.12151847 9.09351296 -3.6722198257020797 -0.6925701377572401 -0.3541233374476
O 2.21067357 13.46184448 7.77644803 0.8333602096792199 -1.07914775345245 -3.4632109004986296
N 10.38029706 8.19260710 3.09582792 2.73356672428754 9.003074204849531 0.5964545457103401
N 10.20594581 5.46582779 3.90919078 0.85098127299927 -9.29339481776134 -1.68460450664838
N 6.60190021 9.65614909 3.05199502 -1.93232809195951 5.9336924626138305 5.89604532501151
N 6.13594173 4.50867111 4.45593495 -9.86360635899201 0.14618399163295 -0.34680108951162997
N 9.48373599 7.81382280 7.33472107 10.06955849829319 0.63462953102545 2.24697700797878
N 5.26774596 7.81991396 6.12150627 -2.53254364903989 2.27679487587717 9.1820279492277
N 9.04813485 8.26316099 3.64967482 -1.47304118932288 -2.48290745208667 0.66583193858939
N 8.85003937 5.63391915 4.43163469 -1.5940666682699 2.77337230394971 0.52376942714934
N 6.84582296 8.32449614 3.70499374 0.59537622456692 -2.20206418673509 -0.97851138871486
N 6.69559890 5.90811462 4.46728512 3.1255467443379104 0.8577643603635301 0.5038783358428199
N 9.34262390 7.44606420 5.89165889 -2.37639817090702 -0.14605363664494 -1.26569782548497
N 6.76151513 7.68484756 5.99788689 2.02678814994764 -0.76417899205826 -3.1268014432363103
N 9.45573488 21.35137905 -0.58388825 2.4760150927896603 9.030177757938409 -0.06831218436756001
N 9.49084292 18.63076284 0.20416558 1.2076168364584 -9.38440368244758 -1.45996455285308
N 5.63952832 22.66240460 -0.65970712 -3.2437617491746003 5.88980628331713 5.68479671085233
N 5.46613720 17.44408691 0.68713453 -10.06428747736776 -0.39378005017080003 -0.78850832360744
N 8.63753169 21.02090875 3.58969279 10.0639732884223 0.75246786908219 2.03447498047335
N 4.35373868 20.60234226 2.36789993 -2.98475153020733 2.28008691782289 9.284984992706471
N 8.10468477 21.41491303 -0.07330876 -1.6183584616963 -2.5733326760968103 0.8889461990930699
N 8.12492952 18.76018758 0.71718098 -1.6894273840943201 2.71323366015185 0.43882785439023997
N 5.91197590 21.31779915 -0.01707455 0.9425025587725001 -2.03869519107137 -0.88028620558981
N 5.95800738 18.86834553 0.73259269 3.12174690929294 0.93924085585752 0.67769115717314
N 8.47439673 20.61739403 2.16078148 -2.4072532222800302 -0.2388633027829 -1.11591120250686
N 5.86367823 20.61341604 2.27352090 2.2906073623976297 -0.5589989553783701 -3.02743803223765
N 2.98122576 2.22518517 1.13448391 9.39497837732305 -1.71294064713868 -0.11565135673916001
N 3.59572990 -1.29709658 2.18513404 2.97070070231826 -9.37647773922197 -1.02488665408439
N -0.28215000 2.49033083 1.26428401 -4.0503181965263195 5.01298078411512 5.63482575611925
N -0.52827592 -2.60329535 2.64954252 -9.93935777654119 0.21726808354634 -0.00071836654142
N 2.63122727 0.91356717 5.62101973 10.02280116682468 0.74984431425447 2.24110511997844
N -1.56343489 0.59899535 4.26520522 -2.95977505170584 3.4126105394329103 8.749059898647591
N 2.36045275 1.14316734 1.95841477 -2.4608270654687 -0.54171547805291 1.12100970233376
N 2.21757454 -1.36271309 2.71258558 -1.9826325189203 2.470805521257 0.56357757791581
N 0.09687176 1.21168978 1.93422755 0.9440871303525901 -1.98395586630351 -0.96273869227608
N 0.03220082 -1.21110915 2.69567838 3.1776478589835397 0.74581025160777 0.53736491246688
N 2.54133724 0.48688069 4.19155320 -2.02466030402896 -0.48695635578194 -1.7278206561645
N -0.05535559 0.55530195 4.21616749 2.20505900902373 -0.8479226873239899 -2.7938544921348
N 6.94465842 16.40841511 3.95100641 9.548409026425551 -1.24673515994118 -0.14317579960194998
N 7.83682761 12.97885540 4.90948521 2.66642953458508 -8.28084149389362 -4.33268509828608
N 3.63917429 16.42137347 4.16327045 -4.34504182555188 4.6611287602061395 6.04232341906184
N 3.74651730 11.36177906 5.39751160 -10.15448361598477 0.05007071357992 -0.9924868832479401
N 6.79594505 14.97866052 8.41229172 10.042141527590141 1.46768532195555 2.00151522312036
N 2.58675746 14.40218532 7.13749162 -3.0851498106867403 2.52029593659641 9.325140756774301
N 6.41350502 15.28269567 4.76261070 -2.55000684655592 -0.51742522728909 1.1199010421595998
N 6.48121978 12.75624385 5.47246104 -2.06681587302133 2.2328626738135 0.98874104139327
N 4.15868429 15.17230726 4.78664906 1.1055360253250701 -1.8788545218385402 -1.07346741272246
N 4.28369779 12.75964118 5.47265845 3.4008883607083495 0.67349074407823 0.5413254415305999
N 6.68874535 14.57863263 6.97579450 -2.00029446279872 -0.65431287710453 -1.70382531106389
N 4.09340415 14.46973834 7.05373857 2.11852360870906 -0.5439351123951 -2.8325421556473303
H 7.88158656 7.66150085 2.05109255 -0.09819612964646 -0.12055136731409999 -0.09836222298424001
H 7.70321268 5.49553495 2.68581499 -0.09446622863845 0.08373263951724 0.12077556760906
H 9.30883435 9.50353351 5.30934052 0.3580956935911 -0.35361040213975 0.38883427393932
H 9.00198542 5.42753324 6.47235000 0.15971494223256 0.66185135491213 0.17004281109523
H 7.06488771 9.67444825 5.41752501 -0.16468334418188 -0.6581965301496799 -0.31861355884986997
H 6.80366257 5.68952935 6.61340818 -0.4963208318634 0.20081558713064 -0.6481357990237799
H 6.99841171 20.71216648 -1.66763168 -0.12997986389263 -0.05598451058035 0.05079807898639001
H 7.00770653 18.54323664 -1.04339905 -0.10471696437212001 0.10610458936283 0.16133833748758
H 8.26551210 22.66095522 1.58493932 0.20608018029532 -0.6843456893224 0.32824054468036
H 8.30442615 18.58487504 2.75897634 0.06140465555518 0.58944031606951 0.24861575850323
H 6.02146841 22.61745744 1.73451184 -0.23375786097438997 -0.47991847198155 -0.33202443887867
H 6.06806191 18.62870782 2.86717015 -0.47788575692197 0.13293611961677002 -0.5750609010509
H 1.18447310 0.56258022 0.30223678 0.06092977259097 0.047052751352580004 0.44754209819422996
H 1.09767277 -1.59677114 0.94813423 -0.07199837660247 0.06631546476818 0.10213069055675
H 2.40527226 2.50944281 3.56534523 0.38046378678024 -0.5890047710010899 -0.03478267030169
H 2.30517321 -1.54587320 4.78095046 0.18031900076147 0.7074599169794 -0.07649318113973
H 0.18259523 2.55181435 3.64888375 -0.18897796582301002 -0.60262391047819 -0.36400537682465
H 0.09636952 -1.43234577 4.84523004 -0.54675535670177 0.11240996554815 -0.6241124288863
H 5.25513677 14.64986709 3.11375607 0.07846264703353 0.07480242295204999 0.40782984961815
H 5.35805599 12.46552790 3.71173230 -0.0810283520145 0.08076944181149001 0.18791661396797
H 6.39812390 16.60588737 6.40191876 0.42306878480425003 -0.59430098874866 -0.04585333119663
H 6.60085369 12.52275304 7.52673612 0.02431621891725 0.82909037676821 -0.02600594866321
H 4.17666607 16.48682637 6.52682560 -0.13362928933605 -0.6474403153106301 -0.39123285714079004
H 4.37766494 12.47247438 7.59875509 -0.50925914292186 0.05167791087785 -0.37007935362297
C 7.90933099 7.60187583 3.13187939 -0.49832860721127 -0.27668604680890996 -0.7695263747814
C 7.79524501 6.09230957 3.56265083 -0.25420868168702004 -0.06172475804053 -1.64935466669538
C 8.86672624 8.54353314 5.06126027 0.60182249726788 0.24417546137713003 0.3374445838535
C 8.67894141 6.15833879 5.74614000 0.5269395987512401 -0.37245556821702996 1.01409727199987
C 7.31589421 8.67948607 5.11680819 -0.30214949246482 1.10083553244381 0.51723342290831
C 7.14560513 6.31177168 5.80749735 -0.20516615271667 -0.37625668881415 1.1797177836991
C 7.02504414 20.65827728 -0.59233021 -0.5847326240962101 -0.47272863591703 -1.10601836449175
C 7.04429870 19.14217699 -0.16188113 -0.20588297659551 -0.01250225176918 -1.59717307648516
C 7.90370851 21.66911907 1.33988609 0.69481599736329 0.45528266479980994 0.44996716376999
C 7.91277387 19.27768918 2.02733986 0.49809129428438 -0.23103403307897002 0.89780365340657
C 6.34488383 21.65922868 1.40401204 -0.31759540154707 0.9785612681382799 0.49621927324355003
C 6.36912684 19.28955812 2.07660951 -0.12821248679681002 -0.43551190117453 1.1557998288379199
C 1.19641661 0.51171736 1.38347778 -0.51449828215397 -0.6674494203045199 -0.8945257525345001
C 1.14065817 -0.98001002 1.82303689 -0.08136182424221 0.20037104319717 -1.44686426222372
C 2.03120978 1.52114139 3.31798168 0.22497728267946 0.36954713503287 0.66498116017652
C 1.96526611 -0.84205306 4.03471225 0.52074220894652 -0.21835334667137 1.02210446212136
C 0.47766082 1.57481492 3.34201757 -0.80809808149 0.8676255737957499 0.51129622885875
C 0.42215916 -0.78742021 4.04791505 -0.14569393915337 -0.38125697245678997 1.15001844370894
C 5.29574454 14.57441766 4.19245284 -0.44781566369174997 -0.71829583605175 -0.8924639839963301
C 5.36399906 13.07467233 4.59319406 -0.02362124942496 0.20615577076174 -1.45338509694938
C 6.08937095 15.59967270 6.13738629 0.20238216098063003 0.38808274015243 0.5941780899631199
C 6.19956232 13.21530005 6.80191316 0.40990550211954 -0.34204223256276 1.0635972004251901
C 4.53767309 15.54126569 6.19487060 -0.84979239437095 0.84420744161049 0.57762146382327
C 4.65677727 13.17023290 6.82677161 -0.17013639929175 -0.37456155974916 0.98302033432577
144
Lattice="7.803127792 0.031720007 0.044135586 5.074007865 27.530938921 -0.132748712 4.61296953 1.015293392 6.701600345" Properties=species:S:1:pos:R:3:forces:R:3 potential_energy=-46698.85863746325
O 11.50474589 8.35564090 4.04705103 1.1561297015196101 -1.7905442882255802 0.9216303340651001
O 11.19711668 5.03905406 4.86353143 1.87282631069676 1.0437127939898498 1.18071562927793
O 7.77542007 10.58627389 3.11420204 0.6591702073480901 0.11274755154274 -1.97945129156991
O 5.79457186 4.22038372 5.67394922 0.39341726735406995 -1.60390782708858 2.7858447309090097
O 10.65074312 8.77656163 1.97420281 -0.11449513113545001 -1.4933315731271901 -1.7420728015202598
O 10.42557534 5.45549645 2.73808013 0.6067613315177499 1.81251771690467 -1.2654085762512202
O 5.54059824 10.18967399 3.17644893 -3.36559815441784 0.65415115464406 -1.55610842704728
O 5.90636774 4.24869521 3.38721783 1.17873922140252 -1.46607015423429 -1.82182717135411
O 9.97240646 9.17352141 7.65349942 -1.01896000156246 2.6472627233598702 0.66644977495268
O 5.04959773 9.16664296 6.27691162 -1.2069753459355501 1.9632736462038798 -1.38496415486993
O 10.01582123 6.94634529 8.22495814 -1.03558527618712 -2.10344433909999 1.89148892836874
O 4.85805847 6.94646758 6.77464443 -1.3427185972270599 -1.8320480822779 -0.7875755269674001
O 10.52220726 21.85723787 0.28723644 1.12132851926696 -1.6285901712581499 0.92993860050012
O 10.49280886 18.50576123 1.06186789 1.8690259614309301 1.02925881694654 1.2152008228121098
O 6.71576885 23.90081718 -0.51451593 1.4150895268426 0.55167053679208 -0.9169666079753299
O 5.08385270 17.36018226 1.77133124 0.26456277581355 -1.71773215711216 2.76556797395749
O 9.73852730 22.09464123 -1.84414262 0.07539634804535 -1.60566106311075 -1.65628662099861
O 9.70718843 18.83100546 -1.07325311 0.51217760341279 1.7637032448857302 -1.37280206019964
O 4.53762223 23.33677974 -0.84734932 -3.47318627096177 0.34338049235091 -2.22097748707632
O 5.29038653 17.42368302 -0.51763834 1.0956758403345699 -1.57465843035092 -2.0190750941580697
O 9.10890522 22.62931525 3.74135223 -1.0426059335887001 2.22692779375781 0.57775696101988
O 3.99559359 22.14143595 2.39215219 -1.43835724942631 2.2953243103464103 -1.33268100603986
O 9.17831685 20.42983747 4.39774420 -0.9007447396153401 -1.98030412686622 2.01502509066471
O 4.02470164 19.91340968 2.91026246 -0.95943302347757 -2.00601979785396 -0.8433844311240599
O 3.71117772 3.10442334 1.84328904 0.09451148007413 3.13917051180275 1.3792953841092899
O 4.52828907 -1.54673133 3.14945558 1.5511757634477301 1.39958936745962 0.8971431367119
O 0.58586674 3.45576921 1.45265971 1.15237974589806 0.05338306724961 -1.32747451983236
O -0.96920528 -3.06293438 3.82881322 0.45959826336736 -1.69247105736466 2.66461227806584
O 3.25856137 1.86857777 -0.02755997 -1.36799358093778 0.58732121190545 -1.6566799999565098
O 3.71497609 -1.58302088 0.99693022 0.29102946636731997 1.2622638585818902 -2.29242513313773
O -1.53826909 2.67949858 1.17591161 -3.56547580269984 0.13368431096807 -1.98837585170564
O -0.94443714 -2.93974872 1.53870287 1.09019501729826 -1.33301036450069 -1.71323426724974
O 2.96102116 2.15781557 5.83363217 -1.22948690674463 2.12619758371327 0.39568241024237
O -2.03691057 1.76965309 4.19111987 -1.39570057220587 1.9904116520903798 -1.97229950784903
O 3.02153314 -0.03230583 6.52094077 -1.05249671472037 -1.8946033070073303 1.89270480359221
O -2.05269672 -0.36629193 4.99808800 -0.9047083540042201 -1.86838138558292 -0.58655810814921
O 7.33403465 16.33899349 2.80785556 -1.43771601601389 0.4794235344038 -1.58739825215742
O 8.91475334 12.65698930 5.72181723 2.00456326726801 0.8041678914570201 1.58844032073021
O 4.52743614 17.69666513 4.36667344 1.0954850643955099 0.28987452631576 -1.42346155666426
O 3.32220938 11.17462354 6.57716000 0.25086778875960003 -1.65947119078459 2.4285057133134003
O 7.72112317 17.57672755 4.68996651 -0.12382515441929 3.06237882545379 1.3983871190889399
O 7.99128848 13.38774071 3.74528343 0.16087013939455 1.8548674042716902 -1.4730075078565499
O 2.46844065 16.73052112 4.15929899 -3.82158093091854 -0.0646555598321 -1.8100008629053999
O 3.53254879 11.24130135 4.29267465 0.7670627426411399 -1.64476961639719 -2.00312473441216
O 7.13637739 16.48132658 8.67162076 -1.3565840484961 2.06127925702171 0.5311317843123899
O 2.14100121 15.78483896 7.15526986 -1.52595657270032 1.6640521273159 -1.6647926053543
O 7.39406872 14.28721192 9.30809020 -0.69017515410179 -2.1058161828167403 1.9465833226404299
O 2.27398502 13.60561819 7.85199451 -1.03738453497626 -2.28166609008395 -0.31033511722473
N 10.59089209 8.56266187 3.19510317 -1.28410564672082 4.45513831145089 0.70283244346026
N 10.34676955 5.35117175 3.99378416 -2.83792501960981 -3.9471732053232205 0.16595218415393
N 6.80473778 9.91185567 3.27727027 2.75100009699369 0.80223442102342 3.71405760620297
N 6.09005671 4.67345278 4.50713450 -2.71056074012157 3.1923340067451402 -1.37871508586878
N 9.90401205 7.93791893 7.44103421 3.54544664309241 -0.47086767062469 -2.63136918501899
N 5.44971065 7.98614763 6.44061707 2.82018722815454 0.5399442443006399 3.6503201877164004
N 9.25536920 8.35466380 3.75372376 1.11800845228437 -0.98617173686628 0.55792269111839
N 9.04951703 5.78136550 4.51149754 1.0172394185648999 0.70073725056619 -0.9818221997219699
N 6.96404430 8.44933781 3.77174355 -1.40825990249051 0.15617221761758998 0.14483467609630998
N 6.87326908 5.99554142 4.58225859 -0.16180447869717 -0.76953485942559 0.52931298513057
N 9.51312539 7.57334725 6.02840674 -0.31092030056341 0.1143987147242 0.8407282232717301
N 6.93887001 7.80824861 6.07044359 -0.04297215171805 0.1524947671373 -0.45091898658185
N 9.64112385 21.96288066 -0.60737474 -1.5153137435608999 4.44729952866105 0.5152081640512001
N 9.62578937 18.75694784 0.18211880 -2.75596104274054 -3.94462138430547 0.19351879312724
N 5.78631473 23.15573965 -0.54586371 1.85486046229008 0.7897599371806799 3.77219233130941
N 5.40986963 17.84502733 0.62823018 -2.58688702374555 3.33917928640405 -1.1991039101210998
N 9.04283696 21.40244117 3.57641136 3.53282200675855 0.0161876726728 -2.83979935464451
N 4.50857715 20.99581317 2.58134446 2.6106684529684 0.26851893399996 3.7830542185351903
N 8.29643929 21.74535757 -0.08423065 1.20993982919345 -1.03765192982346 0.33106850229993
N 8.31192462 19.15169343 0.68491649 1.04766380996766 0.8298928184202401 -1.0225448922879499
N 6.02106315 21.67419942 -0.05819193 -1.28090256498388 -0.1565879651829 0.19818123366486
N 6.12520120 19.19199285 0.73881382 -0.07666158847138001 -0.8718020756206699 0.5052739312568599
N 8.62740556 20.98267188 2.19247051 -0.3889669429212 0.01820136156056 0.9924015225851801
N 6.03313972 20.97960930 2.23854411 0.13681848710977 0.26373153779336 -0.39174424978606004
N 3.21107829 2.12297357 1.17111976 2.3841986442427903 -4.42689113116937 0.31991659450911003
N 3.64635516 -1.53998781 2.27465539 -1.9595154630485698 -4.12983551054371 1.4433742452469
N -0.26782126 2.61675810 1.45558107 1.9635266428670002 1.17376721990718 4.03206001356073
N -0.71550677 -2.56179647 2.66567416 -2.74617644821646 3.33896151386984 -1.35446880098849
N 2.91658605 0.92534294 5.68596956 3.8363578386619297 -0.07112522958219 -2.71367897541661
N -1.54132627 0.64352582 4.55035727 2.3788628314889997 0.40549477269289 4.0642445829672695
N 2.39906916 1.16612961 2.01093693 0.45257503486148004 0.40692867756100004 -0.09866252796648001
N 2.26601255 -1.34622470 2.76260842 0.71867353127342 0.65654973784553 -0.70613708381705
N 0.07387613 1.20389458 1.96096907 -1.54805649971097 -0.08228922156322 0.10465705764193
N 0.07296824 -1.25760608 2.77355486 -0.08930936474394 -0.9255091020120799 0.57367301894976
N 2.57825564 0.48198111 4.28166661 -0.15575312761669 0.01717034873626 0.72115516114378
N -0.01555048 0.55384581 4.25396079 0.05961568118324 0.32120703175728 -0.41173767104372
N 7.28606041 16.56444326 4.01604186 2.73213719029674 -4.22082072107039 0.27029453862954
N 7.98408749 13.00061329 4.94156285 -2.12832800073625 -4.0361812366432 -0.34060472814862996
N 3.75506617 16.78367346 4.38873964 2.15801139987975 1.06953670846862 3.94092079388648
N 3.67242814 11.65405048 5.44826031 -2.39272005522428 3.64644373376329 -0.8235689302839599
N 7.18049472 15.25469441 8.49917159 3.66435558897967 0.31831351097806 -2.92397910919952
N 2.71960739 14.69539963 7.44784993 2.6893956666344 1.03324839948885 3.5706036131157597
N 6.55134865 15.55810592 4.84611099 0.3950964555724 0.6044439952121601 -0.07159085657092
N 6.62686595 13.01282465 5.55181913 0.45442957239307 0.51531923575696 -0.90282502010447
N 4.23964922 15.40467274 4.84643929 -1.53589980435971 -0.23838867692912 0.1921463376519
N 4.43722481 12.95201986 5.57848081 0.09749190417869 -1.08266759523915 0.46235371584567
N 6.83025240 14.81574227 7.09701370 -0.12188551333537001 -0.060146614221190005 0.73626245578972
N 4.23432467 14.71328155 7.12651269 0.00944803697121 0.28634465722228997 -0.28634825676831
H 8.04327114 7.79925380 2.08382244 -0.039669311134270004 0.01551172935233 -0.47050540202881996
H 7.85736879 5.57479126 2.73023762 -0.1792162541272 -0.7195363938765 -0.76677246496567
H 9.53272972 9.66112637 5.43431426 0.55970575195044 -0.08620989851029 0.36938875500799
H 9.21780453 5.52621955 6.63253156 0.56387531179375 0.11296043897878 0.55667596264332
H 7.20842956 9.84748104 5.52111813 -0.62839537442924 0.58002724611678 0.12788467099856
H 6.93210590 5.77503571 6.74678206 -0.85421572220867 -0.23836887942600998 0.13846399386177
H 7.14366793 21.09170317 -1.74929816 -0.06436013994803 0.06793808869191 -0.66674776594105
H 7.15188793 18.86306640 -1.10701767 -0.10722301973333 -0.6992228701334899 -0.71358891540974
H 8.46887323 23.05838324 1.59798266 0.53838564087398 -0.01003167764731 0.37597875243932
H 8.50514140 18.92627110 2.80896028 0.48134954863493 0.17928901637889 0.52017013823977
H 6.14271583 23.03044952 1.72664234 -0.7421016907654501 0.60255423355166 0.08496985490640001
H 6.18607018 18.94924498 2.89177343 -0.7753730659596 -0.31290339331 0.15831986103938
H 1.21386630 0.57656676 0.30479450 0.17231849551116 0.10491262540935001 -0.38659407076273
H 1.11693776 -1.64162481 0.95874956 -0.07039529307141999 -0.57701442609804 -0.61084013137927
H 2.48692686 2.53903400 3.64076240 0.6075781713538599 -0.05255208633985 0.17390280998082
H 2.38227305 -1.57187630 4.89753480 0.59027643918787 0.14103252705747002 0.44450253869077
H 0.17901308 2.59667982 3.70999420 -0.74581899336239 0.57580343597274 0.04050826246736
H 0.08442512 -1.47851078 4.93878671 -0.83751871377404 -0.31956872409732 0.09430682017185
H 5.38647694 14.91179458 3.14604176 0.1615733364206 0.17210920762114001 -0.40299565931328996
H 5.48356823 12.66741051 3.75518149 -0.037982666713470004 -0.5434003227007 -0.55989961321466
H 6.58118396 16.88215826 6.50819789 0.61670379184585 -0.01778072889708 0.17968908020797
H 6.78031174 12.74482792 7.67718819 0.51778518189109 0.17530226205131 0.55550533885553
H 4.27335484 16.77350604 6.62058504 -0.7818370792802299 0.55840683005808 0.07164742086551999
H 4.47557381 12.66995267 7.72680288 -0.7004989091975801 -0.27028322577062003 0.12705548986180998
C 8.07941519 7.72227589 3.16497159 0.27272320375132003 -0.41044106314523 -0.9538488420484
C 7.95846177 6.20741616 3.64197413 -0.00272408500585 0.32909158020366 0.60973069987382
C 9.05504321 8.67526319 5.16890236 -0.43850415235886997 -0.64031167152845 -0.08845524389548
C 8.87113402 6.28169336 5.88716306 -0.14894330076770998 0.8799167379019 0.16874440342372998
C 7.48210150 8.79401635 5.20328227 0.165116318146 -1.6145072045653301 -0.74641060446182
C 7.32045450 6.41841990 5.91438369 0.54835664045981 0.24097572207578002 -0.9485140577363299
C 7.17583540 21.01804791 -0.66334163 0.16462112345781998 -0.34257110871727 -0.59204638738799
C 7.19331451 19.49633550 -0.19369196 -0.06736010444527 0.28582015194509003 0.5531229536111499
C 8.07323049 22.03819077 1.33920549 -0.54574902647875 -0.8452327980053299 -0.03738462785329
C 8.09069709 19.64131963 2.05718688 -0.17924222228063 0.8020161342683501 0.18037710771864998
C 6.49806079 22.01347022 1.37826440 0.31680452986439 -1.5151795319164398 -0.8007215832533
C 6.53091016 19.63353734 2.07592808 0.5331943241818501 0.22505030204158 -0.8488832518904699
C 1.22269908 0.52467767 1.39509662 0.14188176280776 0.48026582817248 -0.29002056504
C 1.17068482 -0.99723428 1.86240024 0.14558183900589 0.05598271080734 0.46747586983212996
C 2.06395073 1.53137527 3.39116642 -0.76413862572075 -0.49196718095221004 -0.04517841631788
C 2.01629054 -0.84537205 4.13108773 -0.18416922945072 0.81072883540976 -0.06606169677377
C 0.49370512 1.55680206 3.38896168 0.09643543742182 -1.6753066221682902 -0.74441825573975
C 0.45542232 -0.81134868 4.11911747 0.48683988475714995 0.15541862694726 -0.82633106763345
C 5.42371016 14.83369509 4.23387400 0.08470631671565 0.53428035863817 -0.32427307363503
C 5.50062716 13.30463200 4.66779962 0.18830793604242999 0.11655175746502 0.63909733896756
C 6.22481179 15.85433656 6.24068280 -0.7236681584866 -0.5400005514848101 -0.04194448132934
C 6.35367295 13.45935119 6.93145406 -0.20880992173063 0.9258178916385099 0.01524433450513
C 4.65695882 15.76616186 6.27078325 0.16325303885979 -1.6885187558347001 -0.86875994501291
C 4.79167874 13.38730322 6.93027482 0.38030052165719 0.05661545957557 -0.71382314301147
144
Lattice="7.770225167 0.024548322 0.032580461 5.027597336 27.298921213 -0.075637506 4.582845328 1.018068113 6.638471334" Properties=species:S:1:pos:R:3:forces:R:3 potential_energy=-46708.23034010543
O 11.42335935 8.30593634 3.98489749 -1.7203114889459201 0.89502248988526 -2.22805856542895
O 11.11505959 4.99507121 4.78622273 -1.7027834996015299 0.34464804677081 -2.05677185407338
O 7.73641712 10.51756010 3.09857314 0.66131219434042 1.0287991034977 -0.46650862039447
O 5.75263362 4.20658890 5.57780615 0.33818789010663003 0.97043966387544 -3.65189858864617
O 10.59655726 8.70621374 1.98369323 -0.03687812030619 -0.051700536595689996 1.5631787067618501
O 10.37726973 5.39120107 2.73884020 0.26426195661045 -0.53842626432192 2.06553186353391
O 5.56040727 10.11211656 3.17156421 4.6450303048525505 -0.12429875183134999 0.10145628989885999
O 5.86250698 4.22025358 3.37519821 -0.12294583674869 0.20166559421222 1.30716819518139
O 9.92491625 9.06841325 7.59506433 0.35128792362556 -2.9768772661781497 -0.054684817356700006
O 5.01427363 9.06888007 6.25629339 0.46713545562281006 -2.59492275312477 0.91009533173358
O 9.96642485 6.93599636 8.13283585 0.13564015000908 2.78727143668508 -1.7295355827326
O 4.83026822 6.93035533 6.72961826 0.8405140502835401 2.18190750035438 -0.23925076820091
O 10.44009006 21.68643729 0.29000854 -1.53427203822738 0.73242559684283 -2.1959184761268
O 10.40600123 18.33980689 1.04900927 -1.8264230202903602 0.16487694833567001 -2.16237662076029
O 6.67014826 23.71692497 -0.45665729 0.30009183769353 1.0747429375656898 0.28668918519848996
O 5.03941474 17.23025194 1.74097031 0.43133154269316 1.0437863275728299 -3.58462178798022
O 9.68148475 21.90760232 -1.76714331 -0.02181761975851 0.0303878817217 1.72674876278183
O 9.65513595 18.64899030 -1.00767468 0.23603868759892 -0.48830335732471003 2.03401295303064
O 4.55596820 23.14369090 -0.77738651 4.84754873436108 0.04866740485298 0.74159338344534
O 5.24146838 17.27924364 -0.45689771 -0.19050957265452 0.34710473692946003 1.87568820689309
O 9.05974049 22.41698769 3.75031385 0.48143259530382 -2.0570814150311 0.04054091549197
O 3.96500440 21.92011629 2.44079628 1.0041334715060801 -3.26628796527819 1.17167202701311
O 9.12574421 20.30195799 4.36888309 0.12248535196855999 2.9262828186523198 -1.9362001750353102
O 3.98991907 19.77993121 2.93166086 0.54329516453483 1.97167884327101 -0.13261267469583
O 3.68348214 3.04094363 1.79916751 -1.19594350871554 -2.83000987502226 -2.2999672104913502
O 4.48918162 -1.54514112 3.08553148 -1.42109331249353 -0.42115485476333 -1.8545467875654802
O 0.57908852 3.44529073 1.45321966 0.24272535855192998 0.76670638758516 0.11478977968823
O -0.97527778 -3.01217141 3.74060498 0.21262955427871 1.17123725327598 -3.7313513679456305
O 3.25567833 1.85111261 -0.01139624 0.31948259210327 0.25227084037611 1.19360843179028
O 3.70543834 -1.58466142 1.01648998 0.20249169002380998 -0.32694779343832003 2.8423470618953797
O -1.47989422 2.67179169 1.19135010 4.71582617597391 0.4837918406095 0.89347211399236
O -0.95075184 -2.90764479 1.53501633 -0.17363490091276002 0.1336999947043 1.11468350020361
O 2.95242334 2.12122963 5.78541559 0.40677081175698 -2.27153362514808 -0.02846906658261
O -2.02718584 1.72562972 4.18915737 0.92525919067412 -3.3769400668164304 1.43458543941821
O 3.01160453 0.01862711 6.43449715 0.20415390895376 2.85600039705967 -2.0029648117247
O -2.04897261 -0.32899735 4.96507734 0.33728826071206003 1.38840840619021 0.03986085840462
O 7.29657930 16.20482792 2.82802961 0.30448611205266 0.20996126223617 1.30792769939161