144
Lattice="7.658968381 0.022888607 0.016420772 4.951315349 27.047496383 -0.075560403 4.503927981 1.010170159 6.561426706" Properties=species:S:1:pos:R:3:forces:R:3 potential_energy=-46653.48531650374
O  8.5422391495   35.3201778870  3.8370919207  -1.07673271518346   -3.5095249735858203  -0.23481689883555998  
O  8.2030388035   31.9127091274  4.6104674068  0.58737726197919   3.31111773985299  1.02227261234258  
O  7.5859229870   10.4154970233  3.1370133274  0.59965968433072   -1.57353562910311  -2.45635900041616  
O  10.5661171101   31.2520704059  5.4034301419  3.5898766109485605   -0.41455431580437  0.1059680637245  
O  7.7414900786   35.7195599788  1.8876152814  -0.69126684498757   -3.3888766756396103  -0.8175659159643199  
O  7.4943669693   32.2914853267  2.6083142840  -0.07792605756612   3.71830429917528  -0.039482134741229996  
O  5.4981858372   10.0163826200  3.1943737690  0.99284349541435   -1.7811818690275603  -2.52760661456303  
O  10.6634328476   31.2761719834  3.2895027735  3.52132865631669   -1.07871169416317  -0.1307123715077  
O  14.7713680076   35.9983386435  7.4114560080  -3.7814459927955397   0.02615301582917  -0.6157576254634499  
O  9.9031371881   36.0178011962  6.1631410014  0.5913383052637701   -0.5592923183790001  -3.2998416477244796  
O  10.3103721201   32.9365381419  1.3660416715  -3.6672907616485504   -0.39842989229735  -0.24917523079891  
O  9.7208092531   33.9444873438  6.6308936396  0.52331845545512   -0.77448937741169  -3.4656107692522498  
O  7.1280152064   22.5371960524  6.8202220411  -0.91915461773463   -3.52498245263742  0.12409229215605999  
O  7.0660199434   19.0983030413  7.5566172127  0.29928888182064   3.4436458252173505  0.83247343580615  
O  11.0267425536   24.4932020570  6.1411568624  0.6230680463196401   -1.9755311288437  -1.8525387551071801  
O  4.9188353102   17.1088455205  1.6854903747  3.69344660569245   -0.29125160977884  0.31672765384582  
O  6.3905227788   22.7637550594  4.8133782703  -0.52715659995416   -3.4254161815094903  -0.7386813507151601  
O  6.3446556476   19.3900269282  5.5472103379  -0.22427382854298003   3.69739839300155  -0.08959912819855  
O  9.0117604560   23.9416374059  5.8635241783  1.7969198555582901   -1.5040857310828  -2.43921359139161  
O  9.6115402608   18.1759217469  6.1368519297  3.64991575301001   -0.81690205683406  -0.05089603806022  
O  8.9701468218   22.1750145759  3.6887613069  -3.59709267227694   0.06970546578773  -0.53735642782269  
O  11.5799145597   21.7255543813  2.4804943250  0.77060521014568   -0.62938087870743  -3.3248003856062995  
O  9.0363784808   20.1351016148  4.2839481704  -3.7220234015452296   -0.28418544383115  -0.32486134229887  
O  11.5971569755   19.6602624214  2.9704918890  0.72657916277506   -1.04311064136279  -3.51077478738605  
O  8.6199228650   29.9994956036  1.6912965093  -3.6481442621473104   1.25001074681938  -0.05762256112988  
O  9.3489486254   25.4539223256  2.9637099623  -0.45185384010533   3.60040656860921  0.58322441431383  
O  5.4731507737   30.4630288572  1.4160430243  1.2534583405752502   -1.73906538082055  -2.14253232355203  
O  11.5971836774   24.1227214421  3.6171327039  3.70659703285566   -0.40034099412353996  0.11671322281506  
O  12.7246461964   29.8628678060  6.5044304647  -3.3300608650040995   1.0530343326295  -0.54099556884891  
O  13.1025937243   26.4268474958  7.5125473346  -0.99808520575076   3.62578028272505  -0.17875422668449  
O  15.6771337957   30.7276506367  7.7486430441  1.69348124424413   -1.21230987313719  -2.33989954559551  
O  3.9563294882   24.2116775536  1.4827816164  3.4373779871548105   -1.10868485676128  -0.59238808714946  
O  7.9077357316   29.1191944985  5.6402061553  -3.66838888029508   0.23926593771628002  -0.70064417659053  
O  10.6242836651   28.7799220976  4.1559999172  0.81222444678107   -1.17081122129347  -3.4317837784188696  
O  7.9638500117   27.0870295410  6.2631788323  -3.76718536279559   -0.45052457918223004  -0.39794009692820004  
O  10.5969194574   26.7921272542  4.9005593585  0.66814336135509   -1.41744671526484  -3.19481383684249  
O  7.2473571985   16.0327656322  2.8218140973  -3.41832147630407   0.84683922397197  -0.5021780645692301  
O  8.6648864778   12.3870352835  5.5539000079  -0.2734935065996   3.14426232675847  1.6889383600564603  
O  12.0259992197   17.4280769875  4.3946417058  1.25081575957571   -1.6450655505021199  -2.26829866171782  
O  10.8397088128   11.0682324838  6.4141740898  3.65744497484213   -0.47704809114103003  0.48057410357804997  
O  7.5858371479   17.1799729324  4.5827744887  -3.69654504348438   1.10982282752446  -0.01655714036071  
O  7.8224977253   13.0719734970  3.7074544627  -0.9808760333395701   3.1304858356982104  1.45442922240561  
O  10.1351625713   16.4837816195  4.2090995878  1.81356852723208   -0.98438147694219  -2.46601426839395  
O  3.3831435130   11.1072165446  4.2820735219  3.48863140871273   -0.83289021181318  0.13852750013798001  
O  2.5291167599   15.1448688158  1.9565119701  -3.65576450107165   -0.0975656948721  -0.56369790559705  
O  9.7521626529   15.5144226960  7.1541626989  0.8187550517030701   -0.9540378182144499  -3.50583312492145  
O  2.7647363223   13.1113483102  2.5320862552  -3.6722198257020797   -0.6925701377572401  -0.3541233374476  
O  5.3657139700   12.4745629293  1.2314420955  0.8333602096792199   -1.07914775345245  -3.4632109004986296  
N  7.6726440324   35.2172148742  3.0038467409  2.73356672428754   9.003074204849531  0.5964545457103401  
N  7.4982927752   32.4904355640  3.8172096074  0.85098127299927   -9.29339481776134  -1.68460450664838  
N  6.6019002118   9.6561490902  3.0519950213  -1.93232809195951   5.9336924626138305  5.89604532501151  
N  11.0872570764   31.5561674964  4.3803745435  -9.86360635899201   0.14618399163295  -0.34680108951162997  
N  14.4350513437   34.8613191842  7.2591606678  10.06955849829319   0.63462953102545  2.24697700797878  
N  10.2190613087   34.8674103466  6.0459458698  -2.53254364903989   2.27679487587717  9.1820279492277  
N  13.9994501991   35.3106573736  3.5741144204  -1.47304118932288   -2.48290745208667  0.66583193858939  
N  13.8013547198   32.6814155379  4.3560742823  -1.5940666682699   2.77337230394971  0.52376942714934  
N  11.7971383126   35.3719925197  3.6294333327  0.59537622456692   -2.20206418673509  -0.97851138871486  
N  11.6469142515   32.9556109989  4.3917247176  3.1255467443379104   0.8577643603635301  0.5038783358428199  
N  14.2939392442   34.4935605858  5.8160984833  -2.37639817090702   -0.14605363664494  -1.26569782548497  
N  11.7128304751   34.7323439425  5.9223264910  2.02678814994764   -0.76417899205826  -3.1268014432363103  
N  13.9596628594   22.3615492131  5.9775384542  2.4760150927896603   9.030177757938409  -0.06831218436756001  
N  13.9947708980   19.6409330039  6.7655922861  1.2076168364584   -9.38440368244758  -1.45996455285308  
N  10.1434563006   23.6725747610  5.9017195833  -3.2437617491746003   5.88980628331713  5.68479671085233  
N  9.9700651845   18.4542570700  7.2485612364  -10.06428747736776   -0.39378005017080003  -0.78850832360744  
N  8.6375316864   21.0209087541  3.5896927898  10.0639732884223   0.75246786908219  2.03447498047335  
N  4.3537386752   20.6023422613  2.3678999345  -2.98475153020733   2.28008691782289  9.284984992706471  
N  12.6086127487   22.4250831869  6.4881179443  -1.6183584616963   -2.5733326760968103  0.8889461990930699  
N  12.6288575047   19.7703577356  7.2786076834  -1.6894273840943201   2.71323366015185  0.43882785439023997  
N  10.4159038777   22.3279693080  6.5443521591  0.9425025587725001   -2.03869519107137  -0.88028620558981  
N  10.4619353573   19.8785156922  7.2940194008  3.12174690929294   0.93924085585752  0.67769115717314  
N  8.4743967290   20.6173940266  2.1607814759  -2.4072532222800302   -0.2388633027829  -1.11591120250686  
N  5.8636782344   20.6134160402  2.2735208994  2.2906073623976297   -0.5589989553783701  -3.02743803223765  
N  12.4364690933   30.2828517077  7.6203502145  9.39497837732305   -1.71294064713868  -0.11565135673916001  
N  8.5470452513   25.7503998013  2.1095736379  2.97070070231826   -9.37647773922197  -1.02488665408439  
N  9.1730933316   30.5479973706  7.7501503111  -4.0503181965263195   5.01298078411512  5.63482575611925  
N  4.4230394262   24.4442010309  2.5739821121  -9.93935777654119   0.21726808354634  -0.00071836654142  
N  7.5825426199   27.9610635482  5.5454593282  10.02280116682468   0.74984431425447  2.24110511997844  
N  11.0468488350   27.6693803447  4.2060655893  -2.95977505170584   3.4126105394329103  8.749059898647591  
N  7.3117681021   28.1906637269  1.8828543666  -2.4608270654687   -0.54171547805291  1.12100970233376  
N  7.1688898849   25.6847832899  2.6370251756  -1.9826325189203   2.470805521257  0.56357757791581  
N  5.0481871090   28.2591861617  1.8586671462  0.9440871303525901   -1.98395586630351  -0.96273869227608  
N  4.9835161680   25.8363872379  2.6201179747  3.1776478589835397   0.74581025160777  0.53736491246688  
N  7.4926525919   27.5343770726  4.1159927966  -2.02466030402896   -0.48695635578194  -1.7278206561645  
N  12.5549281381   27.6256869434  4.1570278582  2.20505900902373   -0.8479226873239899  -2.7938544921348  
N  6.9446584192   16.4084151117  3.9510064128  9.548409026425551   -1.24673515994118  -0.14317579960194998  
N  7.8368276115   12.9788553990  4.9094852144  2.66642953458508   -8.28084149389362  -4.33268509828608  
N  11.2981426743   16.4442620741  4.1796912208  -4.34504182555188   4.6611287602061395  6.04232341906184  
N  11.4054856792   11.3846676640  5.4139323686  -10.15448361598477   0.05007071357992  -0.9924868832479401  
N  2.2920170707   13.9684903625  1.8508650117  10.042141527590141   1.46768532195555  2.00151522312036  
N  10.2457258376   14.4250739307  7.1539123932  -3.0851498106867403   2.52029593659641  9.325140756774301  
N  6.4135050196   15.2826956655  4.7626106974  -2.55000684655592   -0.51742522728909  1.1199010421595998  
N  6.4812197792   12.7562438477  5.4724610417  -2.06681587302133   2.2328626738135  0.98874104139327  
N  11.8176526726   15.1951958700  4.8030698310  1.1055360253250701   -1.8788545218385402  -1.07346741272246  
N  11.9426661689   12.7825297842  5.4890792248  3.4008883607083495   0.67349074407823  0.5413254415305999  
N  6.6887453495   14.5786326263  6.9757944985  -2.00029446279872   -0.65431287710453  -1.70382531106389  
N  11.7523725331   14.4926269421  7.0701593399  2.11852360870906   -0.5439351123951  -2.8325421556473303  
H  12.8329019094   34.7089972311  1.9755321456  -0.09819612964646   -0.12055136731409999  -0.09836222298424001  
H  12.6545280339   32.5430313293  2.6102545889  -0.09446622863845   0.08373263951724  0.12077556760906  
H  14.2601497002   36.5510298962  5.2337801139  0.3580956935911   -0.35361040213975  0.38883427393932  
H  13.9533007690   32.4750296220  6.3967895930  0.15971494223256   0.66185135491213  0.17004281109523  
H  12.0162030620   36.7219446323  5.3419646076  -0.16468334418188   -0.6581965301496799  -0.31861355884986997  
H  11.7549779223   32.7370257313  6.5378477733  -0.4963208318634   0.20081558713064  -0.6481357990237799  
H  11.5023396953   21.7223366388  4.8937950259  -0.12997986389263   -0.05598451058035  0.05079807898639001  
H  11.5116345082   19.5534067974  5.5180276528  -0.10471696437212001   0.10610458936283  0.16133833748758  
H  8.2655120990   22.6609552233  1.5849393168  0.20608018029532   -0.6843456893224  0.32824054468036  
H  8.3044261511   18.5848750360  2.7589763399  0.06140465555518   0.58944031606951  0.24861575850323  
H  6.0214684095   22.6174574362  1.7345118433  -0.23375786097438997   -0.47991847198155  -0.33202443887867  
H  6.0680619090   18.6287078223  2.8671701528  -0.47788575692197   0.13293611961677002  -0.5750609010509  
H  10.6397164327   28.6202467631  6.7881030815  0.06092977259097   0.047052751352580004  0.44754209819422996  
H  10.5529160969   26.4608954002  7.4340005348  -0.07199837660247   0.06631546476818  0.10213069055675  
H  7.3565876110   29.5569391974  3.4897848272  0.38046378678024   -0.5890047710010899  -0.03478267030169  
H  7.2564885551   25.5016231803  4.7053900568  0.18031900076147   0.7074599169794  -0.07649318113973  
H  12.7928789622   29.6221993403  3.5897441239  -0.18897796582301002   -0.60262391047819  -0.36400537682465  
H  12.7066532548   25.6380392212  4.7860904079  -0.54675535670177   0.11240996554815  -0.6241124288863  
H  5.2551367695   14.6498670893  3.1137560735  0.07846264703353   0.07480242295204999  0.40782984961815  
H  5.3580559881   12.4655278957  3.7117323041  -0.0810283520145   0.08076944181149001  0.18791661396797  
H  6.3981238972   16.6058873691  6.4019187576  0.42306878480425003   -0.59430098874866  -0.04585333119663  
H  6.6008536890   12.5227530393  7.5267361220  0.02431621891725   0.82909037676821  -0.02600594866321  
H  11.8356344494   16.5097149808  6.5432463691  -0.13362928933605   -0.6474403153106301  -0.39123285714079004  
H  12.0366333176   12.4953629887  7.6151758657  -0.50925914292186   0.05167791087785  -0.37007935362297  
C  12.8606463385   34.6493722082  3.0563189878  -0.49832860721127   -0.27668604680890996  -0.7695263747814  
C  12.7465603598   33.1398059493  3.4870904246  -0.25420868168702004   -0.06172475804053  -1.64935466669538  
C  13.8180415900   35.5910295207  4.9856998631  0.60182249726788   0.24417546137713003  0.3374445838535  
C  13.6302567578   33.2058351702  5.6705795955  0.5269395987512401   -0.37245556821702996  1.01409727199987  
C  12.2672095611   35.7269824546  5.0412477844  -0.30214949246482   1.10083553244381  0.51723342290831  
C  12.0969204749   33.3592680622  5.7319369508  -0.20516615271667   -0.37625668881415  1.1797177836991  
C  11.5289721235   21.6684474383  5.9690964976  -0.5847326240962101   -0.47272863591703  -1.10601836449175  
C  11.5482266851   20.1523471477  6.3995455778  -0.20588297659551   -0.01250225176918  -1.59717307648516  
C  7.9037085147   21.6691190710  1.3398860890  0.69481599736329   0.45528266479980994  0.44996716376999  
C  7.9127738691   19.2776891829  2.0273398556  0.49809129428438   -0.23103403307897002  0.89780365340657  
C  6.3448838259   21.6592286846  1.4040120417  -0.31759540154707   0.9785612681382799  0.49621927324355003  
C  6.3691268390   19.2895581248  2.0766095057  -0.12821248679681002   -0.43551190117453  1.1557998288379199  
C  6.1477319612   27.5592137417  1.3079173773  -0.51449828215397   -0.6674494203045199  -0.8945257525345001  
C  6.0919735158   26.0674863649  1.7474764880  -0.08136182424221   0.20037104319717  -1.44686426222372  
C  6.9825251310   28.5686377760  3.2424212797  0.22497728267946   0.36954713503287  0.66498116017652  
C  6.9165814570   26.2054433202  3.9591518469  0.52074220894652   -0.21835334667137  1.02210446212136  
C  13.0879445502   28.6451999140  3.2828779385  -0.80809808149   0.8676255737957499  0.51129622885875  
C  13.0324428888   26.2829647804  3.9887754222  -0.14569393915337   -0.38125697245678997  1.15001844370894  
C  5.2957445369   14.5744176592  4.1924528414  -0.44781566369174997   -0.71829583605175  -0.8924639839963301  
C  5.3639990614   13.0746723293  4.5931940587  -0.02362124942496   0.20615577076174  -1.45338509694938  
C  6.0893709453   15.5996727011  6.1373862873  0.20238216098063003   0.38808274015243  0.5941780899631199  
C  6.1995623226   13.2153000472  6.8019131631  0.40990550211954   -0.34204223256276  1.0635972004251901  
C  12.1966414751   15.5641543016  6.2112913751  -0.84979239437095   0.84420744161049  0.57762146382327  
C  12.3157456523   13.1931215021  6.8431923823  -0.17013639929175   -0.37456155974916  0.98302033432577  
144
Lattice="7.803127792 0.031720007 0.044135586 5.074007865 27.530938921 -0.132748712 4.61296953 1.015293392 6.701600345" Properties=species:S:1:pos:R:3:forces:R:3 potential_energy=-46698.85863746325
O  8.7756259581   35.8548598177  3.8701667346  1.1561297015196101   -1.7905442882255802  0.9216303340651001  
O  8.4679967576   32.5382729730  4.6866471314  1.87282631069676   1.0437127939898498  1.18071562927793  
O  7.7754200665   10.5862738928  3.1142020377  0.6591702073480901   0.11274755154274  -1.97945129156991  
O  10.8685797264   31.7513226400  5.5412005117  0.39341726735406995   -1.60390782708858  2.7858447309090097  
O  7.9216231966   36.2757805467  1.7973185125  -0.11449513113545001   -1.4933315731271901  -1.7420728015202598  
O  7.6964554114   32.9547153661  2.5611958305  0.6067613315177499   1.81251771690467  -1.2654085762512202  
O  5.5405982429   10.1896739886  3.1764489339  -3.36559815441784   0.65415115464406  -1.55610842704728  
O  10.9803756060   31.7796341275  3.2544691143  1.17873922140252   -1.46607015423429  -1.82182717135411  
O  15.0464143280   36.7044603289  7.5207507126  -1.01896000156246   2.6472627233598702  0.66644977495268  
O  10.1236055984   36.6975818793  6.1441629061  -1.2069753459355501   1.9632736462038798  -1.38496415486993  
O  10.4768595640   33.4619908215  1.3906090828  -1.03558527618712   -2.10344433909999  1.89148892836874  
O  9.9320663349   34.4774064961  6.6418957216  -1.3427185972270599   -1.8320480822779  -0.7875755269674001  
O  7.3320490005   22.8408112596  6.9447011994  1.12132851926696   -1.6285901712581499  0.92993860050012  
O  7.3026505931   19.4893346130  7.7193326446  1.8690259614309301   1.02925881694654  1.2152008228121098  
O  11.3287383826   24.9161105709  6.1870844151  1.4150895268426   0.55167053679208  -0.9169666079753299  
O  5.0838527038   17.3601822643  1.7713312444  0.26456277581355   -1.71773215711216  2.76556797395749  
O  6.5483690388   23.0782146180  4.8133221437  0.07539634804535   -1.60566106311075  -1.65628662099861  
O  6.5170301664   19.8145788444  5.5842116517  0.51217760341279   1.7637032448857302  -1.37280206019964  
O  9.1505917564   24.3520731303  5.8542510240  -3.47318627096177   0.34338049235091  -2.22097748707632  
O  9.9033560607   18.4389764079  6.1839620034  1.0956758403345699   -1.57465843035092  -2.0190750941580697  
O  9.1089052222   22.6293152549  3.7413522308  -1.0426059335887001   2.22692779375781  0.57775696101988  
O  11.7987213853   22.1731559597  2.4362877721  -1.43835724942631   2.2953243103464103  -1.33268100603986  
O  9.1783168461   20.4298374733  4.3977442014  -0.9007447396153401   -1.98030412686622  2.01502509066471  
O  11.8278294334   19.9451296917  2.9543980435  -0.95943302347757   -2.00601979785396  -0.8433844311240599  
O  8.7851855831   30.6353622640  1.7105403305  0.09451148007413   3.13917051180275  1.3792953841092899  
O  9.6022969332   25.9842075922  3.0167068691  1.5511757634477301   1.39958936745962  0.8971431367119  
O  5.6598746009   30.9867081314  1.3199109981  1.15237974589806   0.05338306724961  -1.32747451983236  
O  11.9079303806   24.4997245438  3.7402000961  0.45959826336736   -1.69247105736466  2.66461227806584  
O  12.9455387600   30.4148100847  6.5412916660  -1.36799358093778   0.58732121190545  -1.6566799999565098  
O  13.4019534833   26.9632114312  7.5657818523  0.29102946636731997   1.2622638585818902  -2.29242513313773  
O  15.9518360975   31.2574509029  7.7888988302  -3.56547580269984   0.13368431096807  -1.98837585170564  
O  4.1295707245   24.5911902029  1.4059541531  1.09019501729826   -1.33301036450069  -1.71323426724974  
O  8.0350290288   29.6887544911  5.7008834629  -1.22948690674463   2.12619758371327  0.39568241024237  
O  10.8402250841   29.3323120198  4.1025067476  -1.39570057220587   1.9904116520903798  -1.97229950784903  
O  8.0955410079   27.4986330867  6.3881920610  -1.05249671472037   -1.8946033070073303  1.89270480359221  
O  10.8244389412   27.1963669988  4.9094748761  -0.9047083540042201   -1.86838138558292  -0.58655810814921  
O  7.3340346545   16.3389934885  2.8078555627  -1.43771601601389   0.4794235344038  -1.58739825215742  
O  8.9147533407   12.6569892955  5.7218172326  2.00456326726801   0.8041678914570201  1.58844032073021  
O  12.3305639317   17.7283851419  4.4108090238  1.0954850643955099   0.28987452631576  -1.42346155666426  
O  11.1253371717   11.2063435441  6.6212955896  0.25086778875960003   -1.65947119078459  2.4285057133134003  
O  7.7211231747   17.5767275468  4.6899665148  -0.12382515441929   3.06237882545379  1.3983871190889399  
O  7.9912884815   13.3877407141  3.7452834334  0.16087013939455   1.8548674042716902  -1.4730075078565499  
O  10.2715684440   16.7622411263  4.2034345790  -3.82158093091854   -0.0646555598321  -1.8100008629053999  
O  3.5325487872   11.2413013459  4.2926746470  0.7670627426411399   -1.64476961639719  -2.00312473441216  
O  2.5234078578   15.4660331833  1.9700204111  -1.3565840484961   2.06127925702171  0.5311317843123899  
O  9.9441290010   15.8165589676  7.1994054429  -1.52595657270032   1.6640521273159  -1.6647926053543  
O  2.7810991870   13.2719185286  2.6064898505  -0.69017515410179   -2.1058161828167403  1.9465833226404299  
O  5.4641432777   12.6220448088  1.1945297488  -1.03738453497626   -2.28166609008395  -0.31033511722473  
N  7.8617721663   36.0618807879  3.0182188702  -1.28410564672082   4.45513831145089  0.70283244346026  
N  7.6176496193   32.8503906632  3.8168998596  -2.83792501960981   -3.9471732053232205  0.16595218415393  
N  6.8047377754   9.9118556730  3.2772702683  2.75100009699369   0.80223442102342  3.71405760620297  
N  11.1640645703   32.2043917036  4.3743857860  -2.71056074012157   3.1923340067451402  -1.37871508586878  
N  14.9780199197   35.4688578533  7.3082854965  3.54544664309241   -0.47086767062469  -2.63136918501899  
N  10.5237185110   35.5170865531  6.3078683560  2.82018722815454   0.5399442443006399  3.6503201877164004  
N  14.3293770674   35.8856027246  3.6209750452  1.11800845228437   -0.98617173686628  0.55792269111839  
N  14.1235248931   33.3123044254  4.3787488314  1.0172394185648999   0.70073725056619  -0.9818221997219699  
N  12.0380521651   35.9802767269  3.6389948425  -1.40825990249051   0.15617221761758998  0.14483467609630998  
N  11.9472769426   33.5264803422  4.4495098771  -0.16180447869717   -0.76953485942559  0.52931298513057  
N  14.5871332500   35.1042861682  5.8956580234  -0.31092030056341   0.1143987147242  0.8407282232717301  
N  12.0128778738   35.3391875273  5.9376948764  -0.04297215171805   0.1524947671373  -0.45091898658185  
N  14.2540933834   22.9781740511  6.0942256087  -1.5153137435608999   4.44729952866105  0.5152081640512001  
N  14.2387588953   19.7722412308  6.8837191458  -2.75596104274054   -3.94462138430547  0.19351879312724  
N  10.3992842637   24.1710330433  6.1557366378  1.85486046229008   0.7897599371806799  3.77219233130941  
N  10.0228391567   18.8603207235  7.3298305271  -2.58688702374555   3.33917928640405  -1.1991039101210998  
N  9.0428369574   21.4024411747  3.5764113620  3.53282200675855   0.0161876726728  -2.83979935464451  
N  4.5085771481   20.9958131715  2.5813444551  2.6106684529684   0.26851893399996  3.7830542185351903  
N  12.9094088231   22.7606509624  6.6173696940  1.20993982919345   -1.03765192982346  0.33106850229993  
N  12.9248941501   20.1669868200  7.3865168340  1.04766380996766   0.8298928184202401  -1.0225448922879499  
N  10.6340326821   22.6894928079  6.6434084102  -1.28090256498388   -0.1565879651829  0.19818123366486  
N  10.7381707340   20.2072862428  7.4404141674  -0.07666158847138001   -0.8718020756206699  0.5052739312568599  
N  8.6274055634   20.9826718801  2.1924705073  -0.3889669429212   0.01820136156056  0.9924015225851801  
N  6.0331397205   20.9796093036  2.2385441073  0.13681848710977   0.26373153779336  -0.39174424978606004  
N  12.8980556847   30.6692058846  7.7399713894  2.3841986442427903   -4.42689113116937  0.31991659450911003  
N  8.7203630229   25.9909511113  2.1419066787  -1.9595154630485698   -4.12983551054371  1.4433742452469  
N  9.4191561326   31.1629904138  8.0244327041  1.9635266428670002   1.17376721990718  4.03206001356073  
N  4.3585010919   24.9691424539  2.5329254492  -2.74617644821646   3.33896151386984  -1.35446880098849  
N  7.9905939154   28.4562818590  5.5532208496  3.8363578386619297   -0.07112522958219  -2.71367897541661  
N  11.3358093888   28.2061847471  4.4617441440  2.3788628314889997   0.40549477269289  4.0642445829672695  
N  7.4730770200   28.6970685357  1.8781882140  0.45257503486148004   0.40692867756100004  -0.09866252796648001  
N  7.3400204118   26.1847142197  2.6298597030  0.71867353127342   0.65654973784553  -0.70613708381705  
N  5.1478839993   28.7348335024  1.8282203589  -1.54805649971097   -0.08228922156322  0.10465705764193  
N  5.1469761025   26.2733328434  2.6408061438  -0.08930936474394   -0.9255091020120799  0.57367301894976  
N  7.6522635059   28.0129200303  4.1489179003  -0.15575312761669   0.01717034873626  0.72115516114378  
N  12.8615851769   28.1165047361  4.1653476624  0.05961568118324   0.32120703175728  -0.41173767104372  
N  7.2860604146   16.5644432554  4.0160418619  2.73213719029674   -4.22082072107039  0.27029453862954  
N  7.9840874900   13.0006132854  4.9415628475  -2.12832800073625   -4.0361812366432  -0.34060472814862996  
N  11.5581939572   16.8153934656  4.4328752303  2.15801139987975   1.06953670846862  3.94092079388648  
N  11.4755559323   11.6857704825  5.4923958936  -2.39272005522428   3.64644373376329  -0.8235689302839599  
N  2.5675251923   14.2394010218  1.7975712435  3.66435558897967   0.31831351097806  -2.92397910919952  
N  10.5227351813   14.7271196415  7.4919855131  2.6893956666344   1.03324839948885  3.5706036131157597  
N  6.5513486510   15.5581059243  4.8461109947  0.3950964555724   0.6044439952121601  -0.07159085657092  
N  6.6268659508   13.0128246502  5.5518191263  0.45442957239307   0.51531923575696  -0.90282502010447  
N  12.0427770127   15.4363927491  4.8905748717  -1.53589980435971   -0.23838867692912  0.1921463376519  
N  12.2403526027   12.9837398699  5.6226163947  0.09749190417869   -1.08266759523915  0.46235371584567  
N  6.8302524001   14.8157422692  7.0970136998  -0.12188551333537001   -0.060146614221190005  0.73626245578972  
N  12.0374524653   14.7450015572  7.1706482800  0.00944803697121   0.28634465722228997  -0.28634825676831  
H  13.1172790003   35.3301927230  1.9510737293  -0.039669311134270004   0.01551172935233  -0.47050540202881996  
H  12.9313766564   33.1057301809  2.5974889100  -0.1792162541272   -0.7195363938765  -0.76677246496567  
H  14.6067375808   37.1920652911  5.3015655437  0.55970575195044   -0.08620989851029  0.36938875500799  
H  14.2918123953   33.0571584714  6.4997828504  0.56387531179375   0.11296043897878  0.55667596264332  
H  12.2824374245   37.3784199639  5.3883694192  -0.62839537442924   0.58002724611678  0.12788467099856  
H  12.0061137664   33.3059746302  6.6140333490  -0.85421572220867   -0.23836887942600998  0.13846399386177  
H  11.7566374561   22.1069965589  4.9523021806  -0.06436013994803   0.06793808869191  -0.66674776594105  
H  11.7648574633   19.8783597960  5.5945826705  -0.10722301973333   -0.6992228701334899  -0.71358891540974  
H  8.4688732320   23.0583832436  1.5979826630  0.53838564087398   -0.01003167764731  0.37597875243932  
H  8.5051413968   18.9262711046  2.8089602752  0.48134954863493   0.17928901637889  0.52017013823977  
H  6.1427158259   23.0304495208  1.7266423442  -0.7421016907654501   0.60255423355166  0.08496985490640001  
H  6.1860701776   18.9492449779  2.8917734319  -0.7753730659596   -0.31290339331  0.15831986103938  
H  10.9008436955   29.1227990687  6.8736461318  0.17231849551116   0.10491262540935001  -0.38659407076273  
H  10.8039151517   26.9046075044  7.5276011965  -0.07039529307141999   -0.57701442609804  -0.61084013137927  
H  7.5609347219   30.0699729229  3.5080136849  0.6075781713538599   -0.05255208633985  0.17390280998082  
H  7.4562809128   25.9590626259  4.7647860871  0.59027643918787   0.14103252705747002  0.44450253869077  
H  13.0561487410   30.1593387505  3.6213810721  -0.74581899336239   0.57580343597274  0.04050826246736  
H  12.9615607729   26.0841481486  4.8501735864  -0.83751871377404   -0.31956872409732  0.09430682017185  
H  5.3864769356   14.9117945808  3.1460417629  0.1615733364206   0.17210920762114001  -0.40299565931328996  
H  5.4835682338   12.6674105084  3.7551814876  -0.037982666713470004   -0.5434003227007  -0.55989961321466  
H  6.5811839602   16.8821582577  6.5081978886  0.61670379184585   -0.01778072889708  0.17968908020797  
H  6.7803117356   12.7448279150  7.6771881891  0.51778518189109   0.17530226205131  0.55550533885553  
H  12.0764826285   16.8052260447  6.6647206223  -0.7818370792802299   0.55840683005808  0.07164742086551999  
H  12.2787015996   12.7016726732  7.7709384685  -0.7004989091975801   -0.27028322577062003  0.12705548986180998  
C  13.1534230511   35.2532148083  3.0322228824  0.27272320375132003   -0.41044106314523  -0.9538488420484  
C  13.0324696308   33.7383550783  3.5092254227  -0.00272408500585   0.32909158020366  0.60973069987382  
C  14.1290510716   36.2062021123  5.0361536513  -0.43850415235886997   -0.64031167152845  -0.08845524389548  
C  13.9451418855   33.8126322856  5.7544143453  -0.14894330076770998   0.8799167379019  0.16874440342372998  
C  12.5561093664   36.3249552706  5.0705335626  0.165116318146   -1.6145072045653301  -0.74641060446182  
C  12.3944623681   33.9493588178  5.7816349804  0.54835664045981   0.24097572207578002  -0.9485140577363299  
C  11.7888049288   22.0333413058  6.0382587167  0.16462112345781998   -0.34257110871727  -0.59204638738799  
C  11.8062840397   20.5116288953  6.5079083835  -0.06736010444527   0.28582015194509003  0.5531229536111499  
C  8.0732304918   22.0381907733  1.3392054930  -0.54574902647875   -0.8452327980053299  -0.03738462785329  
C  8.0906970916   19.6413196328  2.0571868767  -0.17924222228063   0.8020161342683501  0.18037710771864998  
C  6.4980607899   22.0134702225  1.3782644047  0.31680452986439   -1.5151795319164398  -0.8007215832533  
C  6.5309101551   19.6335373367  2.0759280835  0.5331943241818501   0.22505030204158  -0.8488832518904699  
C  6.2967069419   28.0556165937  1.2623479068  0.14188176280776   0.48026582817248  -0.29002056504  